(written by ASE)

768 atoms
4 atom types

0.0      8.2533630098476944  xlo xhi
0.0      28.401517392144324  ylo yhi
0.0      81.321377522267966  zlo zhi

Atoms # atomic

     1   2      5.8957342454697592      1.7557644059768982      13.614032541077792
     2   2       7.959074997931685      14.709926742996679      20.330344380566991
     3   2      3.8323934930078325      14.804726444566228      71.065500900934765
     4   2      1.7690527405459082      18.354916118584271      71.065500900934765
     5   2      7.9590749979316824      19.506712776067108      33.944376921644789
     6   2      7.9590749979316833      26.607092124103186      33.944376921644775
     7   2      5.8957342454697557       23.05690245008514      33.944376921644789
     8   2      1.7690527405459102      1.8505641075464436      77.781812740423973
     9   2      3.8323934930078325      12.501133129600571      57.451468359856975
    10   2      3.8323934930078316      21.905105792602317      30.586221001900181
    11   2      1.7690527405459071       25.45529546662036      30.586221001900181
    12   2      1.7690527405459084      16.051322803618607      3.5395647818439917
    13   2      3.8323934930078321      19.601512477636653      3.5395647818439997
    14   2      1.7690527405459084        23.1517021516547      3.5395647818439917
    15   2      5.8957342454697574       15.95652310204906      67.707344981190175
    16   2      7.9590749979316868     0.50916804692451489      60.991033141700974
    17   2      7.9590749979316771      24.303498809137523      27.228065082155592
    18   2      5.8957342454697583       20.75330913511948      27.228065082155592
    19   2      7.9590749979316886      17.203119461101448      27.228065082155592
    20   2       5.895734245469753      27.853688483155569      27.228065082155592
    21   2      5.8957342454697592      11.159737068978641      60.991033141700974
    22   2      3.8323934930078325      14.804726444566228      10.255876621333192
    23   2      1.7690527405459111      20.658509433549931      64.349189061445571
    24   2      3.8323934930078352      17.108319759531888      64.349189061445571
    25   2      5.8957342454697574        25.3604957650508      20.330344380566991
    26   2      7.9590749979316842      21.810306091032771      20.330344380566991
    27   2      5.8957342454697583      18.260116417014721      20.330344380566991
    28   2      3.8323934930078338      5.4007537815644868      77.781812740423959
    29   2      5.8957342454697583      18.260116417014721      60.991033141700974
    30   2      7.9590749979316842      21.810306091032771      60.991033141700974
    31   2      1.7690527405459082      18.354916118584271      30.586221001900181
    32   2      3.8323934930078325      14.804726444566228      30.586221001900181
    33   2      5.8957342454697574        25.3604957650508      60.991033141700974
    34   2       7.959074997931685      14.709926742996679      60.991033141700974
    35   2        1.76905274054591      4.1541574225121058      71.065500900934765
    36   2      3.8323934930078343     0.60396774849406554      71.065500900934765
    37   2      1.7690527405459084        23.1517021516547      23.869909162410991
    38   2      3.8323934930078321      19.601512477636653      23.869909162410991
    39   2      1.7690527405459084      16.051322803618607      23.869909162410991
    40   2      1.7690527405459082      18.354916118584271      10.255876621333192
    41   2       7.959074997931685      14.709926742996679      40.660688761133983
    42   2      7.9590749979316842      21.810306091032771      40.660688761133983
    43   2      5.8957342454697583      18.260116417014721      40.660688761133983
    44   2      3.8323934930078352       24.20869910756798      16.972188460822391
    45   2      1.7690527405459102       27.75888878158602      16.972188460822391
    46   2      3.8323934930078321      19.601512477636653      77.781812740423959
    47   2      1.7690527405459084        23.1517021516547      77.781812740423973
    48   2       1.769052740545912      13.558130085513849      44.018844680878587
    49   2      3.8323934930078369      10.007940411495809      44.018844680878566
    50   2      1.7690527405459102       27.75888878158602      37.302532841389379
    51   2      3.8323934930078352       24.20869910756798      37.302532841389379
    52   2      1.7690527405459102      8.9509434555825269      77.781812740423973
    53   2      5.8957342454697574        25.3604957650508      40.660688761133983
    54   2      7.9590749979316859      7.6095473949606012      60.991033141700974
    55   2      5.8957342454697601      4.0593577209425584      60.991033141700974
    56   2      5.8957342454697548      13.652929787083403      54.093312440112364
    57   2      5.8957342454697601      4.0593577209425584      20.330344380566991
    58   2      7.9590749979316842      5.3059540799949385      47.377000600623177
    59   2       7.959074997931685       12.40633342803102      47.377000600623177
    60   2      5.8957342454697574      8.8561437540129795      47.377000600623177
    61   2      1.7690527405459091      11.254536770548187      50.735156520367781
    62   2       1.769052740545912      13.558130085513849      16.972188460822391
    63   2      3.8323934930078369      10.007940411495809      16.972188460822391
    64   2      5.8957342454697548      13.652929787083403      6.8977207015886002
    65   2      7.9590749979316904      3.0023607650292763      6.8977207015886002
    66   2      3.8323934930078334      7.7043470965301468      50.735156520367781
    67   2      5.8957342454697601      6.5525504390473195      6.8977207015886002
    68   2      7.9590749979316859      7.6095473949606012      20.330344380566991
    69   2      7.9590749979316788      10.102740113065357      6.8977207015886002
    70   2       7.959074997931685       12.40633342803102      67.707344981190175
    71   2      5.8957342454697574      8.8561437540129795      67.707344981190175
    72   2      7.9590749979316842      5.3059540799949385      13.614032541077801
    73   2       7.959074997931685       12.40633342803102      13.614032541077792
    74   2      5.8957342454697574      8.8561437540129795      13.614032541077801
    75   2      1.7690527405459091      11.254536770548187      71.065500900934765
    76   2      3.8323934930078334      7.7043470965301468      71.065500900934765
    77   2      1.7690527405459071       25.45529546662036      50.735156520367781
    78   2      3.8323934930078316      21.905105792602317      50.735156520367781
    79   2      3.8323934930078334      7.7043470965301468      10.255876621333192
    80   2      1.7690527405459091      11.254536770548187      10.255876621333192
    81   2      7.9590749979316842      5.3059540799949385      67.707344981190175
    82   2      7.9590749979316824      19.506712776067108      13.614032541077801
    83   2      5.8957342454697592      11.159737068978641      20.330344380566991
    84   2      7.9590749979316788      10.102740113065357      74.423656820679369
    85   2      3.8323934930078307      26.701891825672728      23.869909162410991
    86   2      7.9590749979316904      3.0023607650292763      54.093312440112364
    87   2      5.8957342454697601      6.5525504390473195      54.093312440112364
    88   2      5.8957342454697574       15.95652310204906      13.614032541077792
    89   2      1.7690527405459111      20.658509433549931      16.972188460822391
    90   2      7.9590749979316788      10.102740113065357      54.093312440112364
    91   2      7.9590749979316824      19.506712776067108      47.377000600623177
    92   2      3.8323934930078352      17.108319759531888      16.972188460822391
    93   2      3.8323934930078369      2.9075610634597253      16.972188460822391
    94   2      1.7690527405459129      6.4577507374777694      16.972188460822391
    95   2      3.8323934930078325      12.501133129600571      77.781812740423973
    96   2      7.9590749979316868     0.50916804692451489      20.330344380566991
    97   2       1.769052740545912      13.558130085513849      64.349189061445571
    98   2      7.9590749979316833      26.607092124103186      47.377000600623177
    99   2      5.8957342454697557       23.05690245008514      47.377000600623177
   100   2        1.76905274054591      4.1541574225121058      10.255876621333192
   101   2      3.8323934930078343     0.60396774849406554      10.255876621333192
   102   2      3.8323934930078325      12.501133129600571      3.5395647818439917
   103   2      1.7690527405459102      8.9509434555825269      3.5395647818439917
   104   2      3.8323934930078338      5.4007537815644868      3.5395647818439997
   105   2      1.7690527405459102      1.8505641075464436      3.5395647818439917
   106   2      5.8957342454697548      13.652929787083403      74.423656820679369
   107   2      7.9590749979316904      3.0023607650292763      74.423656820679369
   108   2      5.8957342454697601      6.5525504390473195      74.423656820679369
   109   2      3.8323934930078369      10.007940411495809      64.349189061445571
   110   2      7.9590749979316833      26.607092124103186      13.614032541077792
   111   2      1.7690527405459084      16.051322803618607      77.781812740423973
   112   2      3.8323934930078307      26.701891825672728      57.451468359856975
   113   2       7.959074997931685       12.40633342803102      33.944376921644775
   114   2      5.8957342454697574      8.8561437540129795      33.944376921644789
   115   2      3.8323934930078307      26.701891825672728      3.5395647818439917
   116   2      1.7690527405459071       25.45529546662036      71.065500900934765
   117   2      3.8323934930078316      21.905105792602317      71.065500900934765
   118   2      5.8957342454697583       20.75330913511948      54.093312440112364
   119   2      7.9590749979316771      24.303498809137523      54.093312440112364
   120   2      3.8323934930078334      7.7043470965301468      30.586221001900181
   121   2      7.9590749979316842      5.3059540799949385      33.944376921644789
   122   2      1.7690527405459091      11.254536770548187      30.586221001900181
   123   2      1.7690527405459129      6.4577507374777694      44.018844680878566
   124   2       7.959074997931685      14.709926742996679                       0
   125   2      5.8957342454697592      11.159737068978641                       0
   126   2      3.8323934930078369      2.9075610634597253      64.349189061445571
   127   2      1.7690527405459129      6.4577507374777694      64.349189061445571
   128   2      5.8957342454697601      4.0593577209425584      40.660688761133983
   129   2      3.8323934930078343     0.60396774849406554      30.586221001900181
   130   2        1.76905274054591      4.1541574225121058      30.586221001900181
   131   2      7.9590749979316868     0.50916804692451489                       0
   132   2       5.895734245469753      27.853688483155569      6.8977207015886002
   133   2      3.8323934930078369      2.9075610634597253      44.018844680878566
   134   2      3.8323934930078338      5.4007537815644868      23.869909162410991
   135   2      1.7690527405459102      1.8505641075464436      57.451468359856975
   136   2      5.8957342454697574        25.3604957650508                       0
   137   2      3.8323934930078325      14.804726444566228      50.735156520367781
   138   2      1.7690527405459082      18.354916118584271      50.735156520367781
   139   2      5.8957342454697592      11.159737068978641      40.660688761133983
   140   2      7.9590749979316842      21.810306091032771                       0
   141   2       1.769052740545912      13.558130085513849      37.302532841389379
   142   2      7.9590749979316868     0.50916804692451489      40.660688761133983
   143   2      1.7690527405459102      8.9509434555825269      23.869909162410991
   144   2      3.8323934930078369      10.007940411495809      37.302532841389379
   145   2      5.8957342454697583       20.75330913511948      74.423656820679369
   146   2       5.895734245469753      27.853688483155569      54.093312440112364
   147   2      7.9590749979316886      17.203119461101448      54.093312440112364
   148   2      5.8957342454697583      18.260116417014721                       0
   149   2      7.9590749979316886      17.203119461101448      74.423656820679369
   150   2       5.895734245469753      27.853688483155569      74.423656820679369
   151   2      1.7690527405459102      1.8505641075464436      23.869909162410991
   152   2      5.8957342454697557       23.05690245008514      13.614032541077801
   153   2      7.9590749979316771      24.303498809137523      74.423656820679369
   154   2      5.8957342454697557       23.05690245008514      67.707344981190175
   155   2      7.9590749979316859      7.6095473949606012      40.660688761133983
   156   2      7.9590749979316824      19.506712776067108      67.707344981190175
   157   2      1.7690527405459102      8.9509434555825269      57.451468359856975
   158   2      7.9590749979316833      26.607092124103186      67.707344981190175
   159   2      3.8323934930078307      26.701891825672728      77.781812740423973
   160   2      1.7690527405459129      6.4577507374777694      37.302532841389379
   161   2      3.8323934930078369      2.9075610634597253      37.302532841389379
   162   2      1.7690527405459071       25.45529546662036      10.255876621333192
   163   2      3.8323934930078352       24.20869910756798      64.349189061445571
   164   2      1.7690527405459102       27.75888878158602      64.349189061445571
   165   2      3.8323934930078338      5.4007537815644868      57.451468359856975
   166   2        1.76905274054591      4.1541574225121058      50.735156520367781
   167   2      3.8323934930078316      21.905105792602317      10.255876621333192
   168   2      1.7690527405459102       27.75888878158602      44.018844680878587
   169   2      3.8323934930078352      17.108319759531888      37.302532841389379
   170   2      1.7690527405459111      20.658509433549931      37.302532841389379
   171   2      3.8323934930078352       24.20869910756798      44.018844680878566
   172   2      1.7690527405459084      16.051322803618607      57.451468359856975
   173   2      5.8957342454697574       15.95652310204906      33.944376921644775
   174   2      3.8323934930078343     0.60396774849406554      50.735156520367781
   175   2      3.8323934930078321      19.601512477636653      57.451468359856975
   176   2      1.7690527405459084        23.1517021516547      57.451468359856975
   177   2      5.8957342454697592      1.7557644059768982      33.944376921644775
   178   2      5.8957342454697592      1.7557644059768982      47.377000600623177
   179   2      5.8957342454697583       20.75330913511948      6.8977207015886002
   180   2      5.8957342454697574       15.95652310204906      47.377000600623177
   181   2      5.8957342454697592      1.7557644059768982      67.707344981190175
   182   2      7.9590749979316904      3.0023607650292763      27.228065082155592
   183   2      5.8957342454697601      6.5525504390473195      27.228065082155592
   184   2      7.9590749979316771      24.303498809137523      6.8977207015886002
   185   2      7.9590749979316886      17.203119461101448      6.8977207015886002
   186   2      5.8957342454697548      13.652929787083403      27.228065082155592
   187   2      7.9590749979316859      7.6095473949606012                       0
   188   2      1.7690527405459111      20.658509433549931      44.018844680878566
   189   2      3.8323934930078352      17.108319759531888      44.018844680878566
   190   2      5.8957342454697601      4.0593577209425584                       0
   191   2      3.8323934930078325      12.501133129600571      23.869909162410991
   192   2      7.9590749979316788      10.102740113065357      27.228065082155592
   193   1      7.9590749979316842      5.4007537815644868      3.5395647818439997
   194   1      7.9590749979316788      12.501133129600573      3.5395647818439917
   195   1      3.8323934930078329      10.102740113065357      6.8977207015886002
   196   1      1.7690527405459111      13.652929787083403      6.8977207015886002
   197   1      5.8957342454697592      6.4577507374777694      64.349189061445571
   198   1      7.9590749979316859      10.007940411495809      64.349189061445571
   199   1      5.8957342454697557      8.9509434555825234      3.5395647818439917
   200   1      1.7690527405459118      1.7557644059768955      47.377000600623177
   201   1      7.9590749979316771      26.701891825672732      57.451468359856975
   202   1      3.8323934930078365      5.3059540799949385      47.377000600623177
   203   1      1.7690527405459093      27.853688483155569      54.093312440112364
   204   1      5.8957342454697583      18.354916118584271      50.735156520367781
   205   1      3.8323934930078347      12.406333428031017      67.707344981190175
   206   1      7.9590749979316824      19.601512477636653      57.451468359856975
   207   1      7.9590749979316788      21.905105792602317      50.735156520367781
   208   1      3.8323934930078312      24.303498809137523      54.093312440112364
   209   1      5.8957342454697539        23.1517021516547      57.451468359856975
   210   1      1.7690527405459127      8.8561437540129795      47.377000600623177
   211   1      3.8323934930078347      12.406333428031017      47.377000600623177
   212   1      3.8323934930078329      26.607092124103186      13.614032541077801
   213   1      1.7690527405459124      11.159737068978641      60.991033141700974
   214   1      7.9590749979316868      2.9075610634597284      64.349189061445571
   215   1      7.9590749979316868      2.9075610634597284      44.018844680878587
   216   1      5.8957342454697583      1.8505641075464463      77.781812740423973
   217   1      1.7690527405459107        25.3604957650508      20.330344380566991
   218   1      3.8323934930078356      21.810306091032768      20.330344380566991
   219   1      3.8323934930078365      5.3059540799949385      67.707344981190175
   220   1      1.7690527405459118      1.7557644059768955      67.707344981190175
   221   1      1.7690527405459127      8.8561437540129795      67.707344981190175
   222   1      5.8957342454697539      25.455295466620363      10.255876621333192
   223   1       7.959074997931685      14.804726444566228      10.255876621333192
   224   1      5.8957342454697592      13.558130085513847      44.018844680878587
   225   1      5.8957342454697583      18.354916118584271      10.255876621333192
   226   1      5.8957342454697557      11.254536770548196      10.255876621333192
   227   1       7.959074997931685      17.108319759531888      16.972188460822391
   228   1      5.8957342454697574       27.75888878158602      16.972188460822391
   229   1      7.9590749979316842       24.20869910756798      16.972188460822391
   230   1      5.8957342454697574      20.658509433549931      16.972188460822391
   231   1       3.832393493007836      3.0023607650292763      74.423656820679369
   232   1       1.769052740545912      6.5525504390473195      74.423656820679369
   233   1      1.7690527405459124      11.159737068978641                       0
   234   1      3.8323934930078374       7.609547394960595                       0
   235   1      7.9590749979316788      21.905105792602317      10.255876621333192
   236   1      5.8957342454697592      13.558130085513847      64.349189061445571
   237   1      3.8323934930078312      24.303498809137523      6.8977207015886002
   238   1      5.8957342454697566      16.051322803618611      3.5395647818439917
   239   1      5.8957342454697583      1.8505641075464463      57.451468359856975
   240   1      3.8323934930078356      14.709926742996679      20.330344380566991
   241   1      1.7690527405459107      18.260116417014721      20.330344380566991
   242   1       7.959074997931685      14.804726444566228      50.735156520367781
   243   1      5.8957342454697539      25.455295466620363      50.735156520367781
   244   1      1.7690527405459124      4.0593577209425584                       0
   245   1      3.8323934930078374     0.50916804692451489                       0
   246   1      3.8323934930078374     0.50916804692451489      60.991033141700974
   247   1      3.8323934930078347      19.506712776067108      13.614032541077792
   248   1      1.7690527405459093      27.853688483155569      6.8977207015886002
   249   1        1.76905274054591       15.95652310204906      13.614032541077792
   250   1      3.8323934930078374       7.609547394960595      60.991033141700974
   251   1      1.7690527405459124      4.0593577209425584      60.991033141700974
   252   1      7.9590749979316824      19.601512477636653      3.5395647818439997
   253   1      5.8957342454697539        23.1517021516547      3.5395647818439917
   254   1      7.9590749979316771      26.701891825672732      3.5395647818439917
   255   1      1.7690527405459102       20.75330913511948      6.8977207015886002
   256   1      3.8323934930078343      17.203119461101448      6.8977207015886002
   257   1      5.8957342454697592      6.4577507374777694      44.018844680878587
   258   1      7.9590749979316859      10.007940411495809      44.018844680878566
   259   1      1.7690527405459109       23.05690245008514      13.614032541077792
   260   1      7.9590749979316868     0.60396774849406554      10.255876621333192
   261   1      3.8323934930078374     0.50916804692451489      40.660688761133983
   262   1      7.9590749979316806      7.7043470965301468      10.255876621333192
   263   1      3.8323934930078329      26.607092124103186      67.707344981190175
   264   1      3.8323934930078329      10.102740113065357      27.228065082155592
   265   1      1.7690527405459111      13.652929787083403      27.228065082155592
   266   1      7.9590749979316788      12.501133129600573      23.869909162410991
   267   1      5.8957342454697557      8.9509434555825234      23.869909162410991
   268   1      7.9590749979316842      5.4007537815644868      23.869909162410991
   269   1      5.8957342454697574      20.658509433549931      64.349189061445571
   270   1      7.9590749979316842       24.20869910756798      64.349189061445571
   271   1      5.8957342454697574       27.75888878158602      64.349189061445571
   272   1       7.959074997931685      17.108319759531888      64.349189061445571
   273   1      3.8323934930078356      14.709926742996679      40.660688761133983
   274   1      1.7690527405459107      18.260116417014721      40.660688761133983
   275   1      1.7690527405459107      18.260116417014721                       0
   276   1      3.8323934930078347      19.506712776067108      33.944376921644775
   277   1      3.8323934930078347      19.506712776067108      47.377000600623177
   278   1        1.76905274054591       15.95652310204906      33.944376921644775
   279   1      3.8323934930078356      21.810306091032768      60.991033141700974
   280   1      1.7690527405459107        25.3604957650508      60.991033141700974
   281   1      1.7690527405459102       20.75330913511948      27.228065082155592
   282   1      3.8323934930078343      17.203119461101448      27.228065082155592
   283   1      3.8323934930078356      14.709926742996679                       0
   284   1       7.959074997931685      17.108319759531888      44.018844680878587
   285   1      5.8957342454697566      16.051322803618611      23.869909162410991
   286   1      5.8957342454697574       27.75888878158602      44.018844680878587
   287   1      7.9590749979316842       24.20869910756798      44.018844680878566
   288   1      5.8957342454697566      16.051322803618611      77.781812740423973
   289   1      5.8957342454697601      4.1541574225121058      10.255876621333192
   290   1      3.8323934930078356      21.810306091032768      40.660688761133983
   291   1      5.8957342454697574      20.658509433549931      44.018844680878587
   292   1      7.9590749979316842      5.4007537815644868      57.451468359856975
   293   1      1.7690527405459109       23.05690245008514      33.944376921644775
   294   1       7.959074997931685      17.108319759531888      37.302532841389379
   295   1        1.76905274054591       15.95652310204906      47.377000600623177
   296   1      7.9590749979316868     0.60396774849406554      30.586221001900181
   297   1      1.7690527405459124      4.0593577209425584      40.660688761133983
   298   1      7.9590749979316824      19.601512477636653      77.781812740423959
   299   1      5.8957342454697539        23.1517021516547      77.781812740423973
   300   1      7.9590749979316771      26.701891825672732      77.781812740423973
   301   1      3.8323934930078365      5.3059540799949385      33.944376921644775
   302   1      1.7690527405459118      1.7557644059768955      33.944376921644775
   303   1      1.7690527405459127      8.8561437540129795      33.944376921644775
   304   1      3.8323934930078343      17.203119461101448      54.093312440112364
   305   1      1.7690527405459102       20.75330913511948      54.093312440112364
   306   1       1.769052740545912      6.5525504390473195      27.228065082155592
   307   1       3.832393493007836      3.0023607650292763      27.228065082155592
   308   1      1.7690527405459093      27.853688483155569      74.423656820679369
   309   1      3.8323934930078312      24.303498809137523      74.423656820679369
   310   1      5.8957342454697583      1.8505641075464463      23.869909162410991
   311   1      5.8957342454697557      11.254536770548196      30.586221001900181
   312   1      1.7690527405459124      11.159737068978641      40.660688761133983
   313   1      7.9590749979316868      2.9075610634597284      37.302532841389379
   314   1      5.8957342454697592      13.558130085513847      37.302532841389379
   315   1      7.9590749979316859      10.007940411495809      37.302532841389379
   316   1      5.8957342454697592      6.4577507374777694      37.302532841389379
   317   1      1.7690527405459107        25.3604957650508                       0
   318   1      5.8957342454697539      25.455295466620363      71.065500900934765
   319   1       7.959074997931685      14.804726444566228      71.065500900934765
   320   1      5.8957342454697583      18.354916118584271      71.065500900934765
   321   1      7.9590749979316788      21.905105792602317      71.065500900934765
   322   1      3.8323934930078347      12.406333428031017      33.944376921644789
   323   1      3.8323934930078356      21.810306091032768                       0
   324   1      1.7690527405459109       23.05690245008514      47.377000600623177
   325   1      7.9590749979316806      7.7043470965301468      30.586221001900181
   326   1      5.8957342454697601      4.1541574225121058      30.586221001900181
   327   1      3.8323934930078374       7.609547394960595      40.660688761133983
   328   1      5.8957342454697574       27.75888878158602      37.302532841389379
   329   1      1.7690527405459107        25.3604957650508      40.660688761133983
   330   1      5.8957342454697574      20.658509433549931      37.302532841389379
   331   1      1.7690527405459124      4.0593577209425584      20.330344380566991
   332   1      7.9590749979316842      5.4007537815644868      77.781812740423959
   333   1      5.8957342454697557      8.9509434555825234      77.781812740423973
   334   1      7.9590749979316788      12.501133129600573      77.781812740423973
   335   1       3.832393493007836      3.0023607650292763      54.093312440112364
   336   1      3.8323934930078365      5.3059540799949385      13.614032541077792
   337   1      1.7690527405459118      1.7557644059768955      13.614032541077792
   338   1      1.7690527405459127      8.8561437540129795      13.614032541077792
   339   1      3.8323934930078329      26.607092124103186      47.377000600623177
   340   1      5.8957342454697557      11.254536770548196      50.735156520367781
   341   1       1.769052740545912      6.5525504390473195      6.8977207015886002
   342   1       3.832393493007836      3.0023607650292763      6.8977207015886002
   343   1      1.7690527405459111      13.652929787083403      74.423656820679369
   344   1      3.8323934930078329      10.102740113065357      74.423656820679369
   345   1      7.9590749979316842       24.20869910756798      37.302532841389379
   346   1      5.8957342454697583      1.8505641075464463      3.5395647818439917
   347   1      3.8323934930078374       7.609547394960595      20.330344380566991
   348   1      7.9590749979316868     0.60396774849406554      50.735156520367781
   349   1      5.8957342454697601      4.1541574225121058      50.735156520367781
   350   1      7.9590749979316806      7.7043470965301468      50.735156520367781
   351   1      7.9590749979316868      2.9075610634597284      16.972188460822391
   352   1      5.8957342454697592      13.558130085513847      16.972188460822391
   353   1      7.9590749979316859      10.007940411495809      16.972188460822391
   354   1      5.8957342454697592      6.4577507374777694      16.972188460822391
   355   1      5.8957342454697557      11.254536770548196      71.065500900934765
   356   1      7.9590749979316868     0.60396774849406554      71.065500900934765
   357   1      5.8957342454697601      4.1541574225121058      71.065500900934765
   358   1      7.9590749979316806      7.7043470965301468      71.065500900934765
   359   1      3.8323934930078347      12.406333428031017      13.614032541077801